<?xml version="1.0" encoding="UTF-8"?>

<!-- generated on 3-3-2015 13:33:44 by SUMO gui Version 0.22.0
<?xml version="1.0" encoding="UTF-8"?>

<configuration xmlns:xsi="http://www.w3.org/2001/XMLSchema-instance" xsi:noNamespaceSchemaLocation="http://sumo.dlr.de/xsd/sumo-gui.exeConfiguration.xsd">

    <input>
        <net-file value="sim/simpleRoadScenario/simple.net.xml"/>
        <route-files value="sim/simpleRoadScenario/simple.rou.xml"/>
        <additional-files value="sim/simpleRoadScenario/simple.sensors.xml"/>
    </input>

    <output>
        <save-state.prefix value="sim/simpleRoadScenario/state"/>
    </output>

    <time>
        <end value="100"/>
    </time>

    <emissions>
        <phemlight-path value="sim/simpleRoadScenario/./PHEMlight/"/>
    </emissions>

    <traci_server>
        <remote-port value="51184"/>
    </traci_server>

    <random_number>
        <seed value="0"/>
    </random_number>

    <gui_only>
        <gui-settings-file value="sim/simpleRoadScenario/simple.settings.xml"/>
        <quit-on-end value="true"/>
        <start value="true"/>
    </gui_only>

</configuration>
-->

<detector xmlns:xsi="http://www.w3.org/2001/XMLSchema-instance" xsi:noNamespaceSchemaLocation="http://sumo.dlr.de/xsd/det_e2_file.xsd">
   <interval begin="0.00" end="25.00" id="A28_350_lane1_s1" nSamples="13" meanSpeed="3.00" meanOccupancy="17.60" maxOccupancy="50.00" meanMaxJamLengthInVehicles="0.08" meanMaxJamLengthInMeters="0.56" maxJamLengthInVehicles="1" maxJamLengthInMeters="7.00" jamLengthInVehiclesSum="2" jamLengthInMetersSum="14.00" meanHaltingDuration="2.00" maxHaltingDuration="2.00" haltingDurationSum="4.00" meanIntervalHaltingDuration="2.00" maxIntervalHaltingDuration="2.00" intervalHaltingDurationSum="4.00" startedHalts="2.00" meanVehicleNumber="0.52" maxVehicleNumber="1" />
   <interval begin="25.00" end="36.00" id="A28_350_lane1_s1" nSamples="11" meanSpeed="2.45" meanOccupancy="31.82" maxOccupancy="50.00" meanMaxJamLengthInVehicles="0.18" meanMaxJamLengthInMeters="1.27" maxJamLengthInVehicles="1" maxJamLengthInMeters="7.00" jamLengthInVehiclesSum="2" jamLengthInMetersSum="14.00" meanHaltingDuration="2.00" maxHaltingDuration="2.00" haltingDurationSum="4.00" meanIntervalHaltingDuration="2.00" maxIntervalHaltingDuration="2.00" intervalHaltingDurationSum="4.00" startedHalts="2.00" meanVehicleNumber="1.00" maxVehicleNumber="1" />
</detector>
