<?xml version="1.0" encoding="UTF-8"?>

<!-- generated on Tue 16 Dec 2014 11:52:32 AM CET by SUMO gui Version 0.19.0
<?xml version="1.0" encoding="UTF-8"?>

<configuration xmlns:xsi="http://www.w3.org/2001/XMLSchema-instance" xsi:noNamespaceSchemaLocation="http://sumo-sim.org/xsd/sumo-gui.exeConfiguration.xsd">

    <input>
        <net-file value="sim/hello.net.xml"/>
        <route-files value="sim/hello.rou.xml"/>
        <additional-files value="sim/sensors.xml"/>
    </input>

    <output>
        <save-state.prefix value="sim/state"/>
    </output>

    <time>
        <begin value="0"/>
        <end value="10000"/>
        <step-length value="1"/>
    </time>

    <traci_server>
        <remote-port value="46139"/>
    </traci_server>

    <random_number>
        <seed value="0"/>
    </random_number>

    <gui_only>
        <gui-settings-file value="sim/hello.settings.xml"/>
    </gui_only>

</configuration>
-->

<detector xmlns:xsi="http://www.w3.org/2001/XMLSchema-instance" xsi:noNamespaceSchemaLocation="http://sumo-sim.org/xsd/det_e2_file.xsd">
</detector>
