<?xml version="1.0" encoding="UTF-8"?>

<!-- generated on Mon Mar  9 14:01:42 2015 by SUMO gui Version 0.22.0
<?xml version="1.0" encoding="UTF-8"?>

<configuration xmlns:xsi="http://www.w3.org/2001/XMLSchema-instance" xsi:noNamespaceSchemaLocation="http://sumo.dlr.de/xsd/sumo-gui.exeConfiguration.xsd">

    <input>
        <net-file value="sim/hello.net.xml"/>
        <route-files value="sim/hello.rou.xml"/>
        <additional-files value="sim/sensors.xml"/>
    </input>

    <output>
        <save-state.prefix value="sim/state"/>
    </output>

    <time>
        <end value="1000"/>
    </time>

    <emissions>
        <phemlight-path value="sim/./PHEMlight/"/>
    </emissions>

    <traci_server>
        <remote-port value="57433"/>
    </traci_server>

    <random_number>
        <seed value="0"/>
    </random_number>

    <gui_only>
        <gui-settings-file value="sim/hello.settings.xml"/>
        <quit-on-end value="true"/>
        <start value="true"/>
    </gui_only>

</configuration>
-->

<detector xmlns:xsi="http://www.w3.org/2001/XMLSchema-instance" xsi:noNamespaceSchemaLocation="http://sumo.dlr.de/xsd/det_e2_file.xsd">
   <interval begin="0.00" end="25.00" id="A28_350_lane0_0" nSamples="0" meanSpeed="-1.00" meanOccupancy="0.00" maxOccupancy="0.00" meanMaxJamLengthInVehicles="0.00" meanMaxJamLengthInMeters="0.00" maxJamLengthInVehicles="0" maxJamLengthInMeters="0.00" jamLengthInVehiclesSum="0" jamLengthInMetersSum="0.00" meanHaltingDuration="0.00" maxHaltingDuration="0.00" haltingDurationSum="0.00" meanIntervalHaltingDuration="0.00" maxIntervalHaltingDuration="0.00" intervalHaltingDurationSum="0.00" startedHalts="0.00" meanVehicleNumber="0.00" maxVehicleNumber="0" />
   <interval begin="25.00" end="50.00" id="A28_350_lane0_0" nSamples="31" meanSpeed="12.00" meanOccupancy="6.20" maxOccupancy="15.00" meanMaxJamLengthInVehicles="0.00" meanMaxJamLengthInMeters="0.00" maxJamLengthInVehicles="0" maxJamLengthInMeters="0.00" jamLengthInVehiclesSum="0" jamLengthInMetersSum="0.00" meanHaltingDuration="0.00" maxHaltingDuration="0.00" haltingDurationSum="0.00" meanIntervalHaltingDuration="0.00" maxIntervalHaltingDuration="0.00" intervalHaltingDurationSum="0.00" startedHalts="0.00" meanVehicleNumber="1.24" maxVehicleNumber="3" />
   <interval begin="50.00" end="75.00" id="A28_350_lane0_0" nSamples="25" meanSpeed="12.00" meanOccupancy="5.00" maxOccupancy="15.00" meanMaxJamLengthInVehicles="0.00" meanMaxJamLengthInMeters="0.00" maxJamLengthInVehicles="0" maxJamLengthInMeters="0.00" jamLengthInVehiclesSum="0" jamLengthInMetersSum="0.00" meanHaltingDuration="0.00" maxHaltingDuration="0.00" haltingDurationSum="0.00" meanIntervalHaltingDuration="0.00" maxIntervalHaltingDuration="0.00" intervalHaltingDurationSum="0.00" startedHalts="0.00" meanVehicleNumber="1.00" maxVehicleNumber="3" />
   <interval begin="75.00" end="100.00" id="A28_350_lane0_0" nSamples="56" meanSpeed="4.64" meanOccupancy="10.48" maxOccupancy="28.00" meanMaxJamLengthInVehicles="0.00" meanMaxJamLengthInMeters="0.00" maxJamLengthInVehicles="0" maxJamLengthInMeters="0.00" jamLengthInVehiclesSum="0" jamLengthInMetersSum="0.00" meanHaltingDuration="1.00" maxHaltingDuration="1.00" haltingDurationSum="1.00" meanIntervalHaltingDuration="1.00" maxIntervalHaltingDuration="1.00" intervalHaltingDurationSum="1.00" startedHalts="1.00" meanVehicleNumber="2.24" maxVehicleNumber="6" />
   <interval begin="100.00" end="125.00" id="A28_350_lane0_0" nSamples="195" meanSpeed="3.08" meanOccupancy="37.56" maxOccupancy="50.00" meanMaxJamLengthInVehicles="0.00" meanMaxJamLengthInMeters="0.00" maxJamLengthInVehicles="0" maxJamLengthInMeters="0.00" jamLengthInVehiclesSum="0" jamLengthInMetersSum="0.00" meanHaltingDuration="0.00" maxHaltingDuration="0.00" haltingDurationSum="0.00" meanIntervalHaltingDuration="0.00" maxIntervalHaltingDuration="0.00" intervalHaltingDurationSum="0.00" startedHalts="0.00" meanVehicleNumber="7.80" maxVehicleNumber="11" />
   <interval begin="125.00" end="150.00" id="A28_350_lane0_0" nSamples="263" meanSpeed="3.00" meanOccupancy="49.99" maxOccupancy="50.00" meanMaxJamLengthInVehicles="0.00" meanMaxJamLengthInMeters="0.00" maxJamLengthInVehicles="0" maxJamLengthInMeters="0.00" jamLengthInVehiclesSum="0" jamLengthInMetersSum="0.00" meanHaltingDuration="0.00" maxHaltingDuration="0.00" haltingDurationSum="0.00" meanIntervalHaltingDuration="0.00" maxIntervalHaltingDuration="0.00" intervalHaltingDurationSum="0.00" startedHalts="0.00" meanVehicleNumber="10.52" maxVehicleNumber="11" />
   <interval begin="150.00" end="175.00" id="A28_350_lane0_0" nSamples="262" meanSpeed="3.00" meanOccupancy="50.00" maxOccupancy="50.00" meanMaxJamLengthInVehicles="0.00" meanMaxJamLengthInMeters="0.00" maxJamLengthInVehicles="0" maxJamLengthInMeters="0.00" jamLengthInVehiclesSum="0" jamLengthInMetersSum="0.00" meanHaltingDuration="0.00" maxHaltingDuration="0.00" haltingDurationSum="0.00" meanIntervalHaltingDuration="0.00" maxIntervalHaltingDuration="0.00" intervalHaltingDurationSum="0.00" startedHalts="0.00" meanVehicleNumber="10.48" maxVehicleNumber="11" />
   <interval begin="175.00" end="200.00" id="A28_350_lane0_0" nSamples="263" meanSpeed="3.00" meanOccupancy="49.99" maxOccupancy="50.00" meanMaxJamLengthInVehicles="0.00" meanMaxJamLengthInMeters="0.00" maxJamLengthInVehicles="0" maxJamLengthInMeters="0.00" jamLengthInVehiclesSum="0" jamLengthInMetersSum="0.00" meanHaltingDuration="0.00" maxHaltingDuration="0.00" haltingDurationSum="0.00" meanIntervalHaltingDuration="0.00" maxIntervalHaltingDuration="0.00" intervalHaltingDurationSum="0.00" startedHalts="0.00" meanVehicleNumber="10.52" maxVehicleNumber="11" />
   <interval begin="200.00" end="225.00" id="A28_350_lane0_0" nSamples="262" meanSpeed="3.00" meanOccupancy="50.00" maxOccupancy="50.00" meanMaxJamLengthInVehicles="0.00" meanMaxJamLengthInMeters="0.00" maxJamLengthInVehicles="0" maxJamLengthInMeters="0.00" jamLengthInVehiclesSum="0" jamLengthInMetersSum="0.00" meanHaltingDuration="0.00" maxHaltingDuration="0.00" haltingDurationSum="0.00" meanIntervalHaltingDuration="0.00" maxIntervalHaltingDuration="0.00" intervalHaltingDurationSum="0.00" startedHalts="0.00" meanVehicleNumber="10.48" maxVehicleNumber="11" />
   <interval begin="225.00" end="250.00" id="A28_350_lane0_0" nSamples="263" meanSpeed="3.00" meanOccupancy="49.99" maxOccupancy="50.00" meanMaxJamLengthInVehicles="0.00" meanMaxJamLengthInMeters="0.00" maxJamLengthInVehicles="0" maxJamLengthInMeters="0.00" jamLengthInVehiclesSum="0" jamLengthInMetersSum="0.00" meanHaltingDuration="0.00" maxHaltingDuration="0.00" haltingDurationSum="0.00" meanIntervalHaltingDuration="0.00" maxIntervalHaltingDuration="0.00" intervalHaltingDurationSum="0.00" startedHalts="0.00" meanVehicleNumber="10.52" maxVehicleNumber="11" />
   <interval begin="250.00" end="275.00" id="A28_350_lane0_0" nSamples="262" meanSpeed="3.00" meanOccupancy="50.00" maxOccupancy="50.00" meanMaxJamLengthInVehicles="0.00" meanMaxJamLengthInMeters="0.00" maxJamLengthInVehicles="0" maxJamLengthInMeters="0.00" jamLengthInVehiclesSum="0" jamLengthInMetersSum="0.00" meanHaltingDuration="0.00" maxHaltingDuration="0.00" haltingDurationSum="0.00" meanIntervalHaltingDuration="0.00" maxIntervalHaltingDuration="0.00" intervalHaltingDurationSum="0.00" startedHalts="0.00" meanVehicleNumber="10.48" maxVehicleNumber="11" />
   <interval begin="275.00" end="300.00" id="A28_350_lane0_0" nSamples="263" meanSpeed="3.00" meanOccupancy="49.99" maxOccupancy="50.00" meanMaxJamLengthInVehicles="0.00" meanMaxJamLengthInMeters="0.00" maxJamLengthInVehicles="0" maxJamLengthInMeters="0.00" jamLengthInVehiclesSum="0" jamLengthInMetersSum="0.00" meanHaltingDuration="0.00" maxHaltingDuration="0.00" haltingDurationSum="0.00" meanIntervalHaltingDuration="0.00" maxIntervalHaltingDuration="0.00" intervalHaltingDurationSum="0.00" startedHalts="0.00" meanVehicleNumber="10.52" maxVehicleNumber="11" />
   <interval begin="300.00" end="325.00" id="A28_350_lane0_0" nSamples="262" meanSpeed="3.00" meanOccupancy="50.00" maxOccupancy="50.00" meanMaxJamLengthInVehicles="0.00" meanMaxJamLengthInMeters="0.00" maxJamLengthInVehicles="0" maxJamLengthInMeters="0.00" jamLengthInVehiclesSum="0" jamLengthInMetersSum="0.00" meanHaltingDuration="0.00" maxHaltingDuration="0.00" haltingDurationSum="0.00" meanIntervalHaltingDuration="0.00" maxIntervalHaltingDuration="0.00" intervalHaltingDurationSum="0.00" startedHalts="0.00" meanVehicleNumber="10.48" maxVehicleNumber="11" />
   <interval begin="325.00" end="350.00" id="A28_350_lane0_0" nSamples="263" meanSpeed="3.00" meanOccupancy="49.99" maxOccupancy="50.00" meanMaxJamLengthInVehicles="0.00" meanMaxJamLengthInMeters="0.00" maxJamLengthInVehicles="0" maxJamLengthInMeters="0.00" jamLengthInVehiclesSum="0" jamLengthInMetersSum="0.00" meanHaltingDuration="0.00" maxHaltingDuration="0.00" haltingDurationSum="0.00" meanIntervalHaltingDuration="0.00" maxIntervalHaltingDuration="0.00" intervalHaltingDurationSum="0.00" startedHalts="0.00" meanVehicleNumber="10.52" maxVehicleNumber="11" />
   <interval begin="350.00" end="375.00" id="A28_350_lane0_0" nSamples="279" meanSpeed="2.39" meanOccupancy="53.27" maxOccupancy="56.99" meanMaxJamLengthInVehicles="1.80" meanMaxJamLengthInMeters="13.16" maxJamLengthInVehicles="3" maxJamLengthInMeters="22.00" jamLengthInVehiclesSum="45" jamLengthInMetersSum="329.03" meanHaltingDuration="4.00" maxHaltingDuration="4.00" haltingDurationSum="60.00" meanIntervalHaltingDuration="4.00" maxIntervalHaltingDuration="4.00" intervalHaltingDurationSum="60.00" startedHalts="15.00" meanVehicleNumber="11.16" maxVehicleNumber="12" />
   <interval begin="375.00" end="396.00" id="A28_350_lane0_0" nSamples="219" meanSpeed="3.09" meanOccupancy="49.57" maxOccupancy="50.00" meanMaxJamLengthInVehicles="0.00" meanMaxJamLengthInMeters="0.00" maxJamLengthInVehicles="0" maxJamLengthInMeters="0.00" jamLengthInVehiclesSum="0" jamLengthInMetersSum="0.00" meanHaltingDuration="0.00" maxHaltingDuration="0.00" haltingDurationSum="0.00" meanIntervalHaltingDuration="0.00" maxIntervalHaltingDuration="0.00" intervalHaltingDurationSum="0.00" startedHalts="0.00" meanVehicleNumber="10.43" maxVehicleNumber="11" />
</detector>
