<?xml version="1.0" encoding="UTF-8"?>

<!-- generated on 03/03/15 13:14:18 by SUMO Version 0.22.0
<?xml version="1.0" encoding="UTF-8"?>

<configuration xmlns:xsi="http://www.w3.org/2001/XMLSchema-instance" xsi:noNamespaceSchemaLocation="http://sumo.dlr.de/xsd/sumoConfiguration.xsd">

    <input>
        <net-file value="sim/hello.net.xml"/>
        <route-files value="sim/hello.rou.xml"/>
        <additional-files value="sim/sensors.xml"/>
    </input>

    <output>
        <save-state.prefix value="sim/state"/>
    </output>

    <time>
        <end value="1000"/>
    </time>

    <emissions>
        <phemlight-path value="sim/./PHEMlight/"/>
    </emissions>

    <traci_server>
        <remote-port value="50986"/>
    </traci_server>

    <random_number>
        <seed value="0"/>
    </random_number>

    <gui_only>
        <gui-settings-file value="sim/hello.settings.xml"/>
        <quit-on-end value="true"/>
        <start value="true"/>
    </gui_only>

</configuration>
-->

<detector xmlns:xsi="http://www.w3.org/2001/XMLSchema-instance" xsi:noNamespaceSchemaLocation="http://sumo.dlr.de/xsd/det_e2_file.xsd">
   <interval begin="0.00" end="25.00" id="A28_350_lane0_0" nSamples="0" meanSpeed="-1.00" meanOccupancy="0.00" maxOccupancy="0.00" meanMaxJamLengthInVehicles="0.00" meanMaxJamLengthInMeters="0.00" maxJamLengthInVehicles="0" maxJamLengthInMeters="0.00" jamLengthInVehiclesSum="0" jamLengthInMetersSum="0.00" meanHaltingDuration="0.00" maxHaltingDuration="0.00" haltingDurationSum="0.00" meanIntervalHaltingDuration="0.00" maxIntervalHaltingDuration="0.00" intervalHaltingDurationSum="0.00" startedHalts="0.00" meanVehicleNumber="0.00" maxVehicleNumber="0" />
   <interval begin="25.00" end="50.00" id="A28_350_lane0_0" nSamples="5" meanSpeed="12.00" meanOccupancy="4.80" maxOccupancy="30.00" meanMaxJamLengthInVehicles="0.00" meanMaxJamLengthInMeters="0.00" maxJamLengthInVehicles="0" maxJamLengthInMeters="0.00" jamLengthInVehiclesSum="0" jamLengthInMetersSum="0.00" meanHaltingDuration="0.00" maxHaltingDuration="0.00" haltingDurationSum="0.00" meanIntervalHaltingDuration="0.00" maxIntervalHaltingDuration="0.00" intervalHaltingDurationSum="0.00" startedHalts="0.00" meanVehicleNumber="0.20" maxVehicleNumber="1" />
   <interval begin="50.00" end="75.00" id="A28_350_lane0_0" nSamples="9" meanSpeed="8.00" meanOccupancy="7.60" maxOccupancy="50.00" meanMaxJamLengthInVehicles="0.00" meanMaxJamLengthInMeters="0.00" maxJamLengthInVehicles="0" maxJamLengthInMeters="0.00" jamLengthInVehiclesSum="0" jamLengthInMetersSum="0.00" meanHaltingDuration="0.00" maxHaltingDuration="0.00" haltingDurationSum="0.00" meanIntervalHaltingDuration="0.00" maxIntervalHaltingDuration="0.00" intervalHaltingDurationSum="0.00" startedHalts="0.00" meanVehicleNumber="0.36" maxVehicleNumber="1" />
   <interval begin="75.00" end="100.00" id="A28_350_lane0_0" nSamples="11" meanSpeed="10.09" meanOccupancy="10.39" maxOccupancy="50.00" meanMaxJamLengthInVehicles="0.00" meanMaxJamLengthInMeters="0.00" maxJamLengthInVehicles="0" maxJamLengthInMeters="0.00" jamLengthInVehiclesSum="0" jamLengthInMetersSum="0.00" meanHaltingDuration="0.00" maxHaltingDuration="0.00" haltingDurationSum="0.00" meanIntervalHaltingDuration="0.00" maxIntervalHaltingDuration="0.00" intervalHaltingDurationSum="0.00" startedHalts="0.00" meanVehicleNumber="0.44" maxVehicleNumber="1" />
   <interval begin="100.00" end="125.00" id="A28_350_lane0_0" nSamples="14" meanSpeed="6.57" meanOccupancy="15.20" maxOccupancy="50.00" meanMaxJamLengthInVehicles="0.00" meanMaxJamLengthInMeters="0.00" maxJamLengthInVehicles="0" maxJamLengthInMeters="0.00" jamLengthInVehiclesSum="0" jamLengthInMetersSum="0.00" meanHaltingDuration="0.00" maxHaltingDuration="0.00" haltingDurationSum="0.00" meanIntervalHaltingDuration="0.00" maxIntervalHaltingDuration="0.00" intervalHaltingDurationSum="0.00" startedHalts="0.00" meanVehicleNumber="0.56" maxVehicleNumber="1" />
   <interval begin="125.00" end="150.00" id="A28_350_lane0_0" nSamples="9" meanSpeed="10.00" meanOccupancy="10.00" maxOccupancy="50.00" meanMaxJamLengthInVehicles="0.00" meanMaxJamLengthInMeters="0.00" maxJamLengthInVehicles="0" maxJamLengthInMeters="0.00" jamLengthInVehiclesSum="0" jamLengthInMetersSum="0.00" meanHaltingDuration="0.00" maxHaltingDuration="0.00" haltingDurationSum="0.00" meanIntervalHaltingDuration="0.00" maxIntervalHaltingDuration="0.00" intervalHaltingDurationSum="0.00" startedHalts="0.00" meanVehicleNumber="0.36" maxVehicleNumber="1" />
   <interval begin="150.00" end="175.00" id="A28_350_lane0_0" nSamples="11" meanSpeed="9.95" meanOccupancy="10.00" maxOccupancy="50.00" meanMaxJamLengthInVehicles="0.00" meanMaxJamLengthInMeters="0.00" maxJamLengthInVehicles="0" maxJamLengthInMeters="0.00" jamLengthInVehiclesSum="0" jamLengthInMetersSum="0.00" meanHaltingDuration="0.00" maxHaltingDuration="0.00" haltingDurationSum="0.00" meanIntervalHaltingDuration="0.00" maxIntervalHaltingDuration="0.00" intervalHaltingDurationSum="0.00" startedHalts="0.00" meanVehicleNumber="0.44" maxVehicleNumber="1" />
   <interval begin="175.00" end="200.00" id="A28_350_lane0_0" nSamples="5" meanSpeed="8.20" meanOccupancy="4.80" maxOccupancy="50.00" meanMaxJamLengthInVehicles="0.00" meanMaxJamLengthInMeters="0.00" maxJamLengthInVehicles="0" maxJamLengthInMeters="0.00" jamLengthInVehiclesSum="0" jamLengthInMetersSum="0.00" meanHaltingDuration="0.00" maxHaltingDuration="0.00" haltingDurationSum="0.00" meanIntervalHaltingDuration="0.00" maxIntervalHaltingDuration="0.00" intervalHaltingDurationSum="0.00" startedHalts="0.00" meanVehicleNumber="0.20" maxVehicleNumber="1" />
   <interval begin="200.00" end="225.00" id="A28_350_lane0_0" nSamples="14" meanSpeed="7.29" meanOccupancy="15.80" maxOccupancy="50.00" meanMaxJamLengthInVehicles="0.00" meanMaxJamLengthInMeters="0.00" maxJamLengthInVehicles="0" maxJamLengthInMeters="0.00" jamLengthInVehiclesSum="0" jamLengthInMetersSum="0.00" meanHaltingDuration="0.00" maxHaltingDuration="0.00" haltingDurationSum="0.00" meanIntervalHaltingDuration="0.00" maxIntervalHaltingDuration="0.00" intervalHaltingDurationSum="0.00" startedHalts="0.00" meanVehicleNumber="0.56" maxVehicleNumber="1" />
   <interval begin="225.00" end="250.00" id="A28_350_lane0_0" nSamples="13" meanSpeed="7.09" meanOccupancy="15.40" maxOccupancy="50.00" meanMaxJamLengthInVehicles="0.00" meanMaxJamLengthInMeters="0.00" maxJamLengthInVehicles="0" maxJamLengthInMeters="0.00" jamLengthInVehiclesSum="0" jamLengthInMetersSum="0.00" meanHaltingDuration="0.00" maxHaltingDuration="0.00" haltingDurationSum="0.00" meanIntervalHaltingDuration="0.00" maxIntervalHaltingDuration="0.00" intervalHaltingDurationSum="0.00" startedHalts="1.00" meanVehicleNumber="0.52" maxVehicleNumber="1" />
   <interval begin="250.00" end="275.00" id="A28_350_lane0_0" nSamples="11" meanSpeed="8.93" meanOccupancy="12.35" maxOccupancy="50.00" meanMaxJamLengthInVehicles="0.00" meanMaxJamLengthInMeters="0.00" maxJamLengthInVehicles="0" maxJamLengthInMeters="0.00" jamLengthInVehiclesSum="0" jamLengthInMetersSum="0.00" meanHaltingDuration="0.00" maxHaltingDuration="0.00" haltingDurationSum="0.00" meanIntervalHaltingDuration="0.00" maxIntervalHaltingDuration="0.00" intervalHaltingDurationSum="0.00" startedHalts="0.00" meanVehicleNumber="0.44" maxVehicleNumber="2" />
   <interval begin="275.00" end="300.00" id="A28_350_lane0_0" nSamples="7" meanSpeed="8.75" meanOccupancy="9.15" maxOccupancy="50.00" meanMaxJamLengthInVehicles="0.00" meanMaxJamLengthInMeters="0.00" maxJamLengthInVehicles="0" maxJamLengthInMeters="0.00" jamLengthInVehiclesSum="0" jamLengthInMetersSum="0.00" meanHaltingDuration="0.00" maxHaltingDuration="0.00" haltingDurationSum="0.00" meanIntervalHaltingDuration="0.00" maxIntervalHaltingDuration="0.00" intervalHaltingDurationSum="0.00" startedHalts="0.00" meanVehicleNumber="0.28" maxVehicleNumber="1" />
   <interval begin="300.00" end="325.00" id="A28_350_lane0_0" nSamples="13" meanSpeed="7.85" meanOccupancy="14.00" maxOccupancy="50.00" meanMaxJamLengthInVehicles="0.00" meanMaxJamLengthInMeters="0.00" maxJamLengthInVehicles="0" maxJamLengthInMeters="0.00" jamLengthInVehiclesSum="0" jamLengthInMetersSum="0.00" meanHaltingDuration="0.00" maxHaltingDuration="0.00" haltingDurationSum="0.00" meanIntervalHaltingDuration="0.00" maxIntervalHaltingDuration="0.00" intervalHaltingDurationSum="0.00" startedHalts="0.00" meanVehicleNumber="0.52" maxVehicleNumber="1" />
   <interval begin="325.00" end="350.00" id="A28_350_lane0_0" nSamples="11" meanSpeed="8.32" meanOccupancy="10.80" maxOccupancy="50.00" meanMaxJamLengthInVehicles="0.00" meanMaxJamLengthInMeters="0.00" maxJamLengthInVehicles="0" maxJamLengthInMeters="0.00" jamLengthInVehiclesSum="0" jamLengthInMetersSum="0.00" meanHaltingDuration="0.00" maxHaltingDuration="0.00" haltingDurationSum="0.00" meanIntervalHaltingDuration="0.00" maxIntervalHaltingDuration="0.00" intervalHaltingDurationSum="0.00" startedHalts="0.00" meanVehicleNumber="0.44" maxVehicleNumber="1" />
   <interval begin="350.00" end="375.00" id="A28_350_lane0_0" nSamples="9" meanSpeed="10.00" meanOccupancy="8.80" maxOccupancy="50.00" meanMaxJamLengthInVehicles="0.00" meanMaxJamLengthInMeters="0.00" maxJamLengthInVehicles="0" maxJamLengthInMeters="0.00" jamLengthInVehiclesSum="0" jamLengthInMetersSum="0.00" meanHaltingDuration="0.00" maxHaltingDuration="0.00" haltingDurationSum="0.00" meanIntervalHaltingDuration="0.00" maxIntervalHaltingDuration="0.00" intervalHaltingDurationSum="0.00" startedHalts="0.00" meanVehicleNumber="0.36" maxVehicleNumber="1" />
   <interval begin="375.00" end="400.00" id="A28_350_lane0_0" nSamples="11" meanSpeed="8.62" meanOccupancy="14.83" maxOccupancy="50.00" meanMaxJamLengthInVehicles="0.00" meanMaxJamLengthInMeters="0.00" maxJamLengthInVehicles="0" maxJamLengthInMeters="0.00" jamLengthInVehiclesSum="0" jamLengthInMetersSum="0.00" meanHaltingDuration="0.00" maxHaltingDuration="0.00" haltingDurationSum="0.00" meanIntervalHaltingDuration="0.00" maxIntervalHaltingDuration="0.00" intervalHaltingDurationSum="0.00" startedHalts="0.00" meanVehicleNumber="0.44" maxVehicleNumber="1" />
   <interval begin="400.00" end="425.00" id="A28_350_lane0_0" nSamples="14" meanSpeed="9.37" meanOccupancy="16.67" maxOccupancy="50.00" meanMaxJamLengthInVehicles="0.00" meanMaxJamLengthInMeters="0.00" maxJamLengthInVehicles="0" maxJamLengthInMeters="0.00" jamLengthInVehiclesSum="0" jamLengthInMetersSum="0.00" meanHaltingDuration="0.00" maxHaltingDuration="0.00" haltingDurationSum="0.00" meanIntervalHaltingDuration="0.00" maxIntervalHaltingDuration="0.00" intervalHaltingDurationSum="0.00" startedHalts="0.00" meanVehicleNumber="0.56" maxVehicleNumber="1" />
   <interval begin="425.00" end="450.00" id="A28_350_lane0_0" nSamples="9" meanSpeed="9.40" meanOccupancy="8.23" maxOccupancy="50.00" meanMaxJamLengthInVehicles="0.00" meanMaxJamLengthInMeters="0.00" maxJamLengthInVehicles="0" maxJamLengthInMeters="0.00" jamLengthInVehiclesSum="0" jamLengthInMetersSum="0.00" meanHaltingDuration="0.00" maxHaltingDuration="0.00" haltingDurationSum="0.00" meanIntervalHaltingDuration="0.00" maxIntervalHaltingDuration="0.00" intervalHaltingDurationSum="0.00" startedHalts="0.00" meanVehicleNumber="0.36" maxVehicleNumber="1" />
   <interval begin="450.00" end="475.00" id="A28_350_lane0_0" nSamples="13" meanSpeed="9.13" meanOccupancy="13.10" maxOccupancy="50.00" meanMaxJamLengthInVehicles="0.00" meanMaxJamLengthInMeters="0.00" maxJamLengthInVehicles="0" maxJamLengthInMeters="0.00" jamLengthInVehiclesSum="0" jamLengthInMetersSum="0.00" meanHaltingDuration="0.00" maxHaltingDuration="0.00" haltingDurationSum="0.00" meanIntervalHaltingDuration="0.00" maxIntervalHaltingDuration="0.00" intervalHaltingDurationSum="0.00" startedHalts="0.00" meanVehicleNumber="0.52" maxVehicleNumber="1" />
   <interval begin="475.00" end="500.00" id="A28_350_lane0_0" nSamples="9" meanSpeed="8.08" meanOccupancy="12.16" maxOccupancy="50.00" meanMaxJamLengthInVehicles="0.00" meanMaxJamLengthInMeters="0.00" maxJamLengthInVehicles="0" maxJamLengthInMeters="0.00" jamLengthInVehiclesSum="0" jamLengthInMetersSum="0.00" meanHaltingDuration="0.00" maxHaltingDuration="0.00" haltingDurationSum="0.00" meanIntervalHaltingDuration="0.00" maxIntervalHaltingDuration="0.00" intervalHaltingDurationSum="0.00" startedHalts="0.00" meanVehicleNumber="0.36" maxVehicleNumber="1" />
   <interval begin="500.00" end="525.00" id="A28_350_lane0_0" nSamples="10" meanSpeed="8.20" meanOccupancy="11.40" maxOccupancy="50.00" meanMaxJamLengthInVehicles="0.00" meanMaxJamLengthInMeters="0.00" maxJamLengthInVehicles="0" maxJamLengthInMeters="0.00" jamLengthInVehiclesSum="0" jamLengthInMetersSum="0.00" meanHaltingDuration="0.00" maxHaltingDuration="0.00" haltingDurationSum="0.00" meanIntervalHaltingDuration="0.00" maxIntervalHaltingDuration="0.00" intervalHaltingDurationSum="0.00" startedHalts="0.00" meanVehicleNumber="0.40" maxVehicleNumber="1" />
   <interval begin="525.00" end="550.00" id="A28_350_lane0_0" nSamples="15" meanSpeed="8.31" meanOccupancy="13.76" maxOccupancy="50.00" meanMaxJamLengthInVehicles="0.00" meanMaxJamLengthInMeters="0.00" maxJamLengthInVehicles="0" maxJamLengthInMeters="0.00" jamLengthInVehiclesSum="0" jamLengthInMetersSum="0.00" meanHaltingDuration="0.00" maxHaltingDuration="0.00" haltingDurationSum="0.00" meanIntervalHaltingDuration="0.00" maxIntervalHaltingDuration="0.00" intervalHaltingDurationSum="0.00" startedHalts="0.00" meanVehicleNumber="0.60" maxVehicleNumber="1" />
   <interval begin="550.00" end="575.00" id="A28_350_lane0_0" nSamples="21" meanSpeed="6.42" meanOccupancy="27.39" maxOccupancy="61.60" meanMaxJamLengthInVehicles="0.04" meanMaxJamLengthInMeters="0.28" maxJamLengthInVehicles="1" maxJamLengthInMeters="7.00" jamLengthInVehiclesSum="1" jamLengthInMetersSum="7.00" meanHaltingDuration="0.00" maxHaltingDuration="0.00" haltingDurationSum="0.00" meanIntervalHaltingDuration="0.00" maxIntervalHaltingDuration="0.00" intervalHaltingDurationSum="0.00" startedHalts="2.00" meanVehicleNumber="0.84" maxVehicleNumber="2" />
   <interval begin="575.00" end="600.00" id="A28_350_lane0_0" nSamples="38" meanSpeed="1.08" meanOccupancy="53.20" maxOccupancy="79.99" meanMaxJamLengthInVehicles="0.92" meanMaxJamLengthInMeters="6.44" maxJamLengthInVehicles="2" maxJamLengthInMeters="14.00" jamLengthInVehiclesSum="23" jamLengthInMetersSum="161.00" meanHaltingDuration="6.00" maxHaltingDuration="15.00" haltingDurationSum="24.00" meanIntervalHaltingDuration="6.00" maxIntervalHaltingDuration="15.00" intervalHaltingDurationSum="24.00" startedHalts="5.00" meanVehicleNumber="1.52" maxVehicleNumber="3" />
   <interval begin="600.00" end="625.00" id="A28_350_lane0_0" nSamples="25" meanSpeed="5.60" meanOccupancy="29.17" maxOccupancy="58.75" meanMaxJamLengthInVehicles="0.16" meanMaxJamLengthInMeters="1.16" maxJamLengthInVehicles="2" maxJamLengthInMeters="15.00" jamLengthInVehiclesSum="4" jamLengthInMetersSum="29.00" meanHaltingDuration="4.00" maxHaltingDuration="6.00" haltingDurationSum="12.00" meanIntervalHaltingDuration="1.67" maxIntervalHaltingDuration="2.00" intervalHaltingDurationSum="5.00" startedHalts="1.00" meanVehicleNumber="1.00" maxVehicleNumber="2" />
   <interval begin="625.00" end="650.00" id="A28_350_lane0_0" nSamples="18" meanSpeed="7.43" meanOccupancy="19.97" maxOccupancy="50.00" meanMaxJamLengthInVehicles="0.00" meanMaxJamLengthInMeters="0.00" maxJamLengthInVehicles="0" maxJamLengthInMeters="0.00" jamLengthInVehiclesSum="0" jamLengthInMetersSum="0.00" meanHaltingDuration="0.00" maxHaltingDuration="0.00" haltingDurationSum="0.00" meanIntervalHaltingDuration="0.00" maxIntervalHaltingDuration="0.00" intervalHaltingDurationSum="0.00" startedHalts="1.00" meanVehicleNumber="0.72" maxVehicleNumber="1" />
   <interval begin="650.00" end="675.00" id="A28_350_lane0_0" nSamples="8" meanSpeed="9.60" meanOccupancy="9.65" maxOccupancy="50.00" meanMaxJamLengthInVehicles="0.00" meanMaxJamLengthInMeters="0.00" maxJamLengthInVehicles="0" maxJamLengthInMeters="0.00" jamLengthInVehiclesSum="0" jamLengthInMetersSum="0.00" meanHaltingDuration="0.00" maxHaltingDuration="0.00" haltingDurationSum="0.00" meanIntervalHaltingDuration="0.00" maxIntervalHaltingDuration="0.00" intervalHaltingDurationSum="0.00" startedHalts="0.00" meanVehicleNumber="0.32" maxVehicleNumber="1" />
   <interval begin="675.00" end="700.00" id="A28_350_lane0_0" nSamples="8" meanSpeed="7.50" meanOccupancy="10.00" maxOccupancy="70.01" meanMaxJamLengthInVehicles="0.00" meanMaxJamLengthInMeters="0.00" maxJamLengthInVehicles="0" maxJamLengthInMeters="0.00" jamLengthInVehiclesSum="0" jamLengthInMetersSum="0.00" meanHaltingDuration="0.00" maxHaltingDuration="0.00" haltingDurationSum="0.00" meanIntervalHaltingDuration="0.00" maxIntervalHaltingDuration="0.00" intervalHaltingDurationSum="0.00" startedHalts="0.00" meanVehicleNumber="0.32" maxVehicleNumber="2" />
   <interval begin="700.00" end="725.00" id="A28_350_lane0_0" nSamples="21" meanSpeed="3.52" meanOccupancy="21.67" maxOccupancy="64.94" meanMaxJamLengthInVehicles="0.36" meanMaxJamLengthInMeters="2.52" maxJamLengthInVehicles="1" maxJamLengthInMeters="7.00" jamLengthInVehiclesSum="9" jamLengthInMetersSum="63.00" meanHaltingDuration="0.00" maxHaltingDuration="0.00" haltingDurationSum="0.00" meanIntervalHaltingDuration="0.00" maxIntervalHaltingDuration="0.00" intervalHaltingDurationSum="0.00" startedHalts="2.00" meanVehicleNumber="0.84" maxVehicleNumber="2" />
   <interval begin="725.00" end="750.00" id="A28_350_lane0_0" nSamples="30" meanSpeed="2.30" meanOccupancy="39.79" maxOccupancy="64.94" meanMaxJamLengthInVehicles="0.56" meanMaxJamLengthInMeters="3.94" maxJamLengthInVehicles="2" maxJamLengthInMeters="14.58" jamLengthInVehiclesSum="14" jamLengthInMetersSum="98.58" meanHaltingDuration="4.50" maxHaltingDuration="8.00" haltingDurationSum="9.00" meanIntervalHaltingDuration="4.50" maxIntervalHaltingDuration="8.00" intervalHaltingDurationSum="9.00" startedHalts="3.00" meanVehicleNumber="1.20" maxVehicleNumber="2" />
   <interval begin="750.00" end="775.00" id="A28_350_lane0_0" nSamples="28" meanSpeed="1.99" meanOccupancy="30.36" maxOccupancy="55.94" meanMaxJamLengthInVehicles="0.48" meanMaxJamLengthInMeters="3.36" maxJamLengthInVehicles="2" maxJamLengthInMeters="14.00" jamLengthInVehiclesSum="12" jamLengthInMetersSum="84.00" meanHaltingDuration="4.00" maxHaltingDuration="4.00" haltingDurationSum="4.00" meanIntervalHaltingDuration="4.00" maxIntervalHaltingDuration="4.00" intervalHaltingDurationSum="4.00" startedHalts="3.00" meanVehicleNumber="1.12" maxVehicleNumber="2" />
   <interval begin="775.00" end="800.00" id="A28_350_lane0_0" nSamples="27" meanSpeed="3.64" meanOccupancy="30.38" maxOccupancy="55.94" meanMaxJamLengthInVehicles="0.52" meanMaxJamLengthInMeters="3.64" maxJamLengthInVehicles="2" maxJamLengthInMeters="14.00" jamLengthInVehiclesSum="13" jamLengthInMetersSum="91.01" meanHaltingDuration="7.50" maxHaltingDuration="8.00" haltingDurationSum="15.00" meanIntervalHaltingDuration="7.50" maxIntervalHaltingDuration="8.00" intervalHaltingDurationSum="15.00" startedHalts="2.00" meanVehicleNumber="1.08" maxVehicleNumber="2" />
   <interval begin="800.00" end="825.00" id="A28_350_lane0_0" nSamples="12" meanSpeed="5.11" meanOccupancy="14.69" maxOccupancy="55.94" meanMaxJamLengthInVehicles="0.16" meanMaxJamLengthInMeters="1.12" maxJamLengthInVehicles="2" maxJamLengthInMeters="14.00" jamLengthInVehiclesSum="4" jamLengthInMetersSum="28.00" meanHaltingDuration="0.00" maxHaltingDuration="0.00" haltingDurationSum="0.00" meanIntervalHaltingDuration="0.00" maxIntervalHaltingDuration="0.00" intervalHaltingDurationSum="0.00" startedHalts="0.00" meanVehicleNumber="0.48" maxVehicleNumber="2" />
   <interval begin="825.00" end="850.00" id="A28_350_lane0_0" nSamples="8" meanSpeed="10.60" meanOccupancy="12.20" maxOccupancy="50.00" meanMaxJamLengthInVehicles="0.00" meanMaxJamLengthInMeters="0.00" maxJamLengthInVehicles="0" maxJamLengthInMeters="0.00" jamLengthInVehiclesSum="0" jamLengthInMetersSum="0.00" meanHaltingDuration="0.00" maxHaltingDuration="0.00" haltingDurationSum="0.00" meanIntervalHaltingDuration="0.00" maxIntervalHaltingDuration="0.00" intervalHaltingDurationSum="0.00" startedHalts="0.00" meanVehicleNumber="0.32" maxVehicleNumber="1" />
   <interval begin="850.00" end="875.00" id="A28_350_lane0_0" nSamples="14" meanSpeed="6.95" meanOccupancy="15.87" maxOccupancy="50.00" meanMaxJamLengthInVehicles="0.00" meanMaxJamLengthInMeters="0.00" maxJamLengthInVehicles="0" maxJamLengthInMeters="0.00" jamLengthInVehiclesSum="0" jamLengthInMetersSum="0.00" meanHaltingDuration="0.00" maxHaltingDuration="0.00" haltingDurationSum="0.00" meanIntervalHaltingDuration="0.00" maxIntervalHaltingDuration="0.00" intervalHaltingDurationSum="0.00" startedHalts="0.00" meanVehicleNumber="0.56" maxVehicleNumber="1" />
   <interval begin="875.00" end="900.00" id="A28_350_lane0_0" nSamples="5" meanSpeed="10.65" meanOccupancy="5.10" maxOccupancy="37.51" meanMaxJamLengthInVehicles="0.00" meanMaxJamLengthInMeters="0.00" maxJamLengthInVehicles="0" maxJamLengthInMeters="0.00" jamLengthInVehiclesSum="0" jamLengthInMetersSum="0.00" meanHaltingDuration="0.00" maxHaltingDuration="0.00" haltingDurationSum="0.00" meanIntervalHaltingDuration="0.00" maxIntervalHaltingDuration="0.00" intervalHaltingDurationSum="0.00" startedHalts="0.00" meanVehicleNumber="0.20" maxVehicleNumber="1" />
   <interval begin="900.00" end="925.00" id="A28_350_lane0_0" nSamples="19" meanSpeed="4.86" meanOccupancy="22.64" maxOccupancy="55.60" meanMaxJamLengthInVehicles="0.16" meanMaxJamLengthInMeters="1.12" maxJamLengthInVehicles="1" maxJamLengthInMeters="7.00" jamLengthInVehiclesSum="4" jamLengthInMetersSum="28.00" meanHaltingDuration="5.00" maxHaltingDuration="5.00" haltingDurationSum="5.00" meanIntervalHaltingDuration="5.00" maxIntervalHaltingDuration="5.00" intervalHaltingDurationSum="5.00" startedHalts="2.00" meanVehicleNumber="0.76" maxVehicleNumber="2" />
   <interval begin="925.00" end="950.00" id="A28_350_lane0_0" nSamples="20" meanSpeed="2.91" meanOccupancy="23.12" maxOccupancy="60.57" meanMaxJamLengthInVehicles="0.24" meanMaxJamLengthInMeters="1.68" maxJamLengthInVehicles="2" maxJamLengthInMeters="14.00" jamLengthInVehiclesSum="6" jamLengthInMetersSum="42.00" meanHaltingDuration="1.00" maxHaltingDuration="1.00" haltingDurationSum="1.00" meanIntervalHaltingDuration="1.00" maxIntervalHaltingDuration="1.00" intervalHaltingDurationSum="1.00" startedHalts="3.00" meanVehicleNumber="0.80" maxVehicleNumber="2" />
   <interval begin="950.00" end="975.00" id="A28_350_lane0_0" nSamples="10" meanSpeed="6.89" meanOccupancy="13.39" maxOccupancy="50.00" meanMaxJamLengthInVehicles="0.00" meanMaxJamLengthInMeters="0.00" maxJamLengthInVehicles="0" maxJamLengthInMeters="0.00" jamLengthInVehiclesSum="0" jamLengthInMetersSum="0.00" meanHaltingDuration="0.00" maxHaltingDuration="0.00" haltingDurationSum="0.00" meanIntervalHaltingDuration="0.00" maxIntervalHaltingDuration="0.00" intervalHaltingDurationSum="0.00" startedHalts="0.00" meanVehicleNumber="0.40" maxVehicleNumber="1" />
   <interval begin="975.00" end="1000.00" id="A28_350_lane0_0" nSamples="9" meanSpeed="9.96" meanOccupancy="12.11" maxOccupancy="50.00" meanMaxJamLengthInVehicles="0.00" meanMaxJamLengthInMeters="0.00" maxJamLengthInVehicles="0" maxJamLengthInMeters="0.00" jamLengthInVehiclesSum="0" jamLengthInMetersSum="0.00" meanHaltingDuration="0.00" maxHaltingDuration="0.00" haltingDurationSum="0.00" meanIntervalHaltingDuration="0.00" maxIntervalHaltingDuration="0.00" intervalHaltingDurationSum="0.00" startedHalts="0.00" meanVehicleNumber="0.36" maxVehicleNumber="1" />
</detector>
