<?xml version="1.0" encoding="UTF-8"?>

<!-- generated on Wed Dec 10 10:18:36 2014 by SUMO sumo Version 0.21.0
<?xml version="1.0" encoding="UTF-8"?>

<configuration xmlns:xsi="http://www.w3.org/2001/XMLSchema-instance" xsi:noNamespaceSchemaLocation="http://sumo-sim.org/xsd/sumoConfiguration.xsd">

    <input>
        <net-file value="sim/hello.net.xml"/>
        <route-files value="sim/hello.rou.xml"/>
        <additional-files value="sim/sensors.xml"/>
    </input>

    <output>
        <save-state.prefix value="sim/state"/>
    </output>

    <time>
        <begin value="0"/>
        <end value="10000"/>
        <step-length value="1"/>
    </time>

    <emissions>
        <phemlight-path value="sim/./PHEMlight/"/>
    </emissions>

    <traci_server>
        <remote-port value="50896"/>
    </traci_server>

    <random_number>
        <seed value="0"/>
    </random_number>

    <gui_only>
        <gui-settings-file value="sim/hello.settings.xml"/>
    </gui_only>

</configuration>
<<<<<<< HEAD
-->

<detector xmlns:xsi="http://www.w3.org/2001/XMLSchema-instance" xsi:noNamespaceSchemaLocation="http://sumo.dlr.de/xsd/det_e2_file.xsd">
   <interval begin="0.00" end="11.00" id="N42lane0" nSamples="0" meanSpeed="-1.00" meanOccupancy="0.00" maxOccupancy="0.00" meanMaxJamLengthInVehicles="0.00" meanMaxJamLengthInMeters="0.00" maxJamLengthInVehicles="0" maxJamLengthInMeters="0.00" jamLengthInVehiclesSum="0" jamLengthInMetersSum="0.00" meanHaltingDuration="0.00" maxHaltingDuration="0.00" haltingDurationSum="0.00" meanIntervalHaltingDuration="0.00" maxIntervalHaltingDuration="0.00" intervalHaltingDurationSum="0.00" startedHalts="0.00" meanVehicleNumber="0.00" maxVehicleNumber="0" />
</detector>
=======
>>>>>>> ebbdfbe0b500202bd781c20ffa189455974db3ff
