<?xml version="1.0" encoding="UTF-8"?>

<!-- generated on di 16 dec 2014 16:08:41 CET by SUMO gui Version 0.22.0
<?xml version="1.0" encoding="UTF-8"?>

<configuration xmlns:xsi="http://www.w3.org/2001/XMLSchema-instance" xsi:noNamespaceSchemaLocation="http://sumo.dlr.de/xsd/sumo-gui.exeConfiguration.xsd">

    <input>
        <net-file value="/home/barend/Scriptie/MasterThesis/Code/TrafficMAS/sim/hello.net.xml"/>
        <route-files value="/home/barend/Scriptie/MasterThesis/Code/TrafficMAS/sim/hello.rou.xml"/>
        <additional-files value="/home/barend/Scriptie/MasterThesis/Code/TrafficMAS/sim/sensors.xml"/>
    </input>

    <output>
        <save-state.prefix value="/home/barend/Scriptie/MasterThesis/Code/TrafficMAS/sim/state"/>
    </output>

    <time>
        <begin value="0"/>
        <end value="10000"/>
    </time>

    <emissions>
        <phemlight-path value="/home/barend/Scriptie/MasterThesis/Code/TrafficMAS/sim/./PHEMlight/"/>
    </emissions>

    <traci_server>
        <remote-port value="39409"/>
    </traci_server>

    <random_number>
        <seed value="0"/>
    </random_number>

    <gui_only>
        <gui-settings-file value="/home/barend/Scriptie/MasterThesis/Code/TrafficMAS/sim/hello.settings.xml"/>
    </gui_only>

</configuration>
-->

<detector xmlns:xsi="http://www.w3.org/2001/XMLSchema-instance" xsi:noNamespaceSchemaLocation="http://sumo.dlr.de/xsd/det_e2_file.xsd">
</detector>
