<?xml version="1.0" encoding="UTF-8"?>

<!-- generated on Fri Mar  6 19:35:36 2015 by SUMO gui Version 0.22.0
<?xml version="1.0" encoding="UTF-8"?>

<configuration xmlns:xsi="http://www.w3.org/2001/XMLSchema-instance" xsi:noNamespaceSchemaLocation="http://sumo.dlr.de/xsd/sumo-gui.exeConfiguration.xsd">

    <input>
        <net-file value="/Users/barendpoot/Workspace/TrafficMAS/TrafficMASTests/tests/Organisations/Norms/orgnormtest.net.xml"/>
        <route-files value="/Users/barendpoot/Workspace/TrafficMAS/TrafficMASTests/tests/Organisations/Norms/orgnormtest.rou.xml"/>
        <additional-files value="/Users/barendpoot/Workspace/TrafficMAS/TrafficMASTests/tests/Organisations/Norms/orgnormtest.sens.xml"/>
    </input>

    <output>
        <save-state.prefix value="/Users/barendpoot/Workspace/TrafficMAS/TrafficMASTests/tests/Organisations/Norms/state"/>
    </output>

    <time>
        <end value="1000"/>
    </time>

    <emissions>
        <phemlight-path value="/Users/barendpoot/Workspace/TrafficMAS/TrafficMASTests/tests/Organisations/Norms/./PHEMlight/"/>
    </emissions>

    <traci_server>
        <remote-port value="58265"/>
    </traci_server>

    <random_number>
        <seed value="0"/>
    </random_number>

    <gui_only>
        <gui-settings-file value="/Users/barendpoot/Workspace/TrafficMAS/TrafficMASTests/tests/Organisations/Norms/orgnormtest.settings.xml"/>
        <quit-on-end value="true"/>
        <start value="true"/>
    </gui_only>

</configuration>
-->

<detector xmlns:xsi="http://www.w3.org/2001/XMLSchema-instance" xsi:noNamespaceSchemaLocation="http://sumo.dlr.de/xsd/det_e2_file.xsd">
   <interval begin="0.00" end="25.00" id="sens2" nSamples="19" meanSpeed="4.95" meanOccupancy="23.20" maxOccupancy="50.00" meanMaxJamLengthInVehicles="0.00" meanMaxJamLengthInMeters="0.00" maxJamLengthInVehicles="0" maxJamLengthInMeters="0.00" jamLengthInVehiclesSum="0" jamLengthInMetersSum="0.00" meanHaltingDuration="0.00" maxHaltingDuration="0.00" haltingDurationSum="0.00" meanIntervalHaltingDuration="0.00" maxIntervalHaltingDuration="0.00" intervalHaltingDurationSum="0.00" startedHalts="0.00" meanVehicleNumber="0.76" maxVehicleNumber="1" />
   <interval begin="25.00" end="50.00" id="sens2" nSamples="25" meanSpeed="5.00" meanOccupancy="30.80" maxOccupancy="50.00" meanMaxJamLengthInVehicles="0.00" meanMaxJamLengthInMeters="0.00" maxJamLengthInVehicles="0" maxJamLengthInMeters="0.00" jamLengthInVehiclesSum="0" jamLengthInMetersSum="0.00" meanHaltingDuration="0.00" maxHaltingDuration="0.00" haltingDurationSum="0.00" meanIntervalHaltingDuration="0.00" maxIntervalHaltingDuration="0.00" intervalHaltingDurationSum="0.00" startedHalts="0.00" meanVehicleNumber="1.00" maxVehicleNumber="1" />
   <interval begin="50.00" end="75.00" id="sens2" nSamples="25" meanSpeed="5.04" meanOccupancy="28.80" maxOccupancy="50.00" meanMaxJamLengthInVehicles="0.00" meanMaxJamLengthInMeters="0.00" maxJamLengthInVehicles="0" maxJamLengthInMeters="0.00" jamLengthInVehiclesSum="0" jamLengthInMetersSum="0.00" meanHaltingDuration="0.00" maxHaltingDuration="0.00" haltingDurationSum="0.00" meanIntervalHaltingDuration="0.00" maxIntervalHaltingDuration="0.00" intervalHaltingDurationSum="0.00" startedHalts="0.00" meanVehicleNumber="1.00" maxVehicleNumber="1" />
   <interval begin="75.00" end="100.00" id="sens2" nSamples="25" meanSpeed="4.96" meanOccupancy="30.40" maxOccupancy="50.00" meanMaxJamLengthInVehicles="0.00" meanMaxJamLengthInMeters="0.00" maxJamLengthInVehicles="0" maxJamLengthInMeters="0.00" jamLengthInVehiclesSum="0" jamLengthInMetersSum="0.00" meanHaltingDuration="0.00" maxHaltingDuration="0.00" haltingDurationSum="0.00" meanIntervalHaltingDuration="0.00" maxIntervalHaltingDuration="0.00" intervalHaltingDurationSum="0.00" startedHalts="0.00" meanVehicleNumber="1.00" maxVehicleNumber="1" />
   <interval begin="100.00" end="125.00" id="sens2" nSamples="25" meanSpeed="5.00" meanOccupancy="30.80" maxOccupancy="50.00" meanMaxJamLengthInVehicles="0.00" meanMaxJamLengthInMeters="0.00" maxJamLengthInVehicles="0" maxJamLengthInMeters="0.00" jamLengthInVehiclesSum="0" jamLengthInMetersSum="0.00" meanHaltingDuration="0.00" maxHaltingDuration="0.00" haltingDurationSum="0.00" meanIntervalHaltingDuration="0.00" maxIntervalHaltingDuration="0.00" intervalHaltingDurationSum="0.00" startedHalts="0.00" meanVehicleNumber="1.00" maxVehicleNumber="1" />
   <interval begin="125.00" end="150.00" id="sens2" nSamples="25" meanSpeed="5.04" meanOccupancy="28.80" maxOccupancy="50.00" meanMaxJamLengthInVehicles="0.00" meanMaxJamLengthInMeters="0.00" maxJamLengthInVehicles="0" maxJamLengthInMeters="0.00" jamLengthInVehiclesSum="0" jamLengthInMetersSum="0.00" meanHaltingDuration="0.00" maxHaltingDuration="0.00" haltingDurationSum="0.00" meanIntervalHaltingDuration="0.00" maxIntervalHaltingDuration="0.00" intervalHaltingDurationSum="0.00" startedHalts="0.00" meanVehicleNumber="1.00" maxVehicleNumber="1" />
   <interval begin="150.00" end="175.00" id="sens2" nSamples="25" meanSpeed="4.96" meanOccupancy="30.40" maxOccupancy="50.00" meanMaxJamLengthInVehicles="0.00" meanMaxJamLengthInMeters="0.00" maxJamLengthInVehicles="0" maxJamLengthInMeters="0.00" jamLengthInVehiclesSum="0" jamLengthInMetersSum="0.00" meanHaltingDuration="0.00" maxHaltingDuration="0.00" haltingDurationSum="0.00" meanIntervalHaltingDuration="0.00" maxIntervalHaltingDuration="0.00" intervalHaltingDurationSum="0.00" startedHalts="0.00" meanVehicleNumber="1.00" maxVehicleNumber="1" />
   <interval begin="175.00" end="200.00" id="sens2" nSamples="25" meanSpeed="5.00" meanOccupancy="30.80" maxOccupancy="50.00" meanMaxJamLengthInVehicles="0.00" meanMaxJamLengthInMeters="0.00" maxJamLengthInVehicles="0" maxJamLengthInMeters="0.00" jamLengthInVehiclesSum="0" jamLengthInMetersSum="0.00" meanHaltingDuration="0.00" maxHaltingDuration="0.00" haltingDurationSum="0.00" meanIntervalHaltingDuration="0.00" maxIntervalHaltingDuration="0.00" intervalHaltingDurationSum="0.00" startedHalts="0.00" meanVehicleNumber="1.00" maxVehicleNumber="1" />
   <interval begin="200.00" end="225.00" id="sens2" nSamples="25" meanSpeed="5.04" meanOccupancy="28.80" maxOccupancy="50.00" meanMaxJamLengthInVehicles="0.00" meanMaxJamLengthInMeters="0.00" maxJamLengthInVehicles="0" maxJamLengthInMeters="0.00" jamLengthInVehiclesSum="0" jamLengthInMetersSum="0.00" meanHaltingDuration="0.00" maxHaltingDuration="0.00" haltingDurationSum="0.00" meanIntervalHaltingDuration="0.00" maxIntervalHaltingDuration="0.00" intervalHaltingDurationSum="0.00" startedHalts="0.00" meanVehicleNumber="1.00" maxVehicleNumber="1" />
   <interval begin="225.00" end="250.00" id="sens2" nSamples="25" meanSpeed="4.96" meanOccupancy="30.40" maxOccupancy="50.00" meanMaxJamLengthInVehicles="0.00" meanMaxJamLengthInMeters="0.00" maxJamLengthInVehicles="0" maxJamLengthInMeters="0.00" jamLengthInVehiclesSum="0" jamLengthInMetersSum="0.00" meanHaltingDuration="0.00" maxHaltingDuration="0.00" haltingDurationSum="0.00" meanIntervalHaltingDuration="0.00" maxIntervalHaltingDuration="0.00" intervalHaltingDurationSum="0.00" startedHalts="0.00" meanVehicleNumber="1.00" maxVehicleNumber="1" />
   <interval begin="250.00" end="275.00" id="sens2" nSamples="25" meanSpeed="5.00" meanOccupancy="30.80" maxOccupancy="50.00" meanMaxJamLengthInVehicles="0.00" meanMaxJamLengthInMeters="0.00" maxJamLengthInVehicles="0" maxJamLengthInMeters="0.00" jamLengthInVehiclesSum="0" jamLengthInMetersSum="0.00" meanHaltingDuration="0.00" maxHaltingDuration="0.00" haltingDurationSum="0.00" meanIntervalHaltingDuration="0.00" maxIntervalHaltingDuration="0.00" intervalHaltingDurationSum="0.00" startedHalts="0.00" meanVehicleNumber="1.00" maxVehicleNumber="1" />
   <interval begin="275.00" end="300.00" id="sens2" nSamples="25" meanSpeed="5.04" meanOccupancy="28.80" maxOccupancy="50.00" meanMaxJamLengthInVehicles="0.00" meanMaxJamLengthInMeters="0.00" maxJamLengthInVehicles="0" maxJamLengthInMeters="0.00" jamLengthInVehiclesSum="0" jamLengthInMetersSum="0.00" meanHaltingDuration="0.00" maxHaltingDuration="0.00" haltingDurationSum="0.00" meanIntervalHaltingDuration="0.00" maxIntervalHaltingDuration="0.00" intervalHaltingDurationSum="0.00" startedHalts="0.00" meanVehicleNumber="1.00" maxVehicleNumber="1" />
   <interval begin="300.00" end="325.00" id="sens2" nSamples="25" meanSpeed="4.96" meanOccupancy="30.40" maxOccupancy="50.00" meanMaxJamLengthInVehicles="0.00" meanMaxJamLengthInMeters="0.00" maxJamLengthInVehicles="0" maxJamLengthInMeters="0.00" jamLengthInVehiclesSum="0" jamLengthInMetersSum="0.00" meanHaltingDuration="0.00" maxHaltingDuration="0.00" haltingDurationSum="0.00" meanIntervalHaltingDuration="0.00" maxIntervalHaltingDuration="0.00" intervalHaltingDurationSum="0.00" startedHalts="0.00" meanVehicleNumber="1.00" maxVehicleNumber="1" />
   <interval begin="325.00" end="350.00" id="sens2" nSamples="39" meanSpeed="1.49" meanOccupancy="51.56" maxOccupancy="66.37" meanMaxJamLengthInVehicles="0.76" meanMaxJamLengthInMeters="5.42" maxJamLengthInVehicles="2" maxJamLengthInMeters="15.00" jamLengthInVehiclesSum="19" jamLengthInMetersSum="135.40" meanHaltingDuration="5.50" maxHaltingDuration="6.00" haltingDurationSum="11.00" meanIntervalHaltingDuration="5.50" maxIntervalHaltingDuration="6.00" intervalHaltingDurationSum="11.00" startedHalts="4.00" meanVehicleNumber="1.56" maxVehicleNumber="2" />
   <interval begin="350.00" end="375.00" id="sens2" nSamples="33" meanSpeed="2.47" meanOccupancy="46.16" maxOccupancy="66.37" meanMaxJamLengthInVehicles="0.32" meanMaxJamLengthInMeters="2.28" maxJamLengthInVehicles="2" maxJamLengthInMeters="15.00" jamLengthInVehiclesSum="8" jamLengthInMetersSum="57.00" meanHaltingDuration="3.00" maxHaltingDuration="4.00" haltingDurationSum="6.00" meanIntervalHaltingDuration="3.00" maxIntervalHaltingDuration="4.00" intervalHaltingDurationSum="6.00" startedHalts="4.00" meanVehicleNumber="1.32" maxVehicleNumber="2" />
   <interval begin="375.00" end="400.00" id="sens2" nSamples="26" meanSpeed="4.60" meanOccupancy="34.43" maxOccupancy="50.00" meanMaxJamLengthInVehicles="0.00" meanMaxJamLengthInMeters="0.00" maxJamLengthInVehicles="0" maxJamLengthInMeters="0.00" jamLengthInVehiclesSum="0" jamLengthInMetersSum="0.00" meanHaltingDuration="0.00" maxHaltingDuration="0.00" haltingDurationSum="0.00" meanIntervalHaltingDuration="0.00" maxIntervalHaltingDuration="0.00" intervalHaltingDurationSum="0.00" startedHalts="0.00" meanVehicleNumber="1.04" maxVehicleNumber="2" />
   <interval begin="400.00" end="425.00" id="sens2" nSamples="28" meanSpeed="3.76" meanOccupancy="35.02" maxOccupancy="56.37" meanMaxJamLengthInVehicles="0.16" meanMaxJamLengthInMeters="1.12" maxJamLengthInVehicles="1" maxJamLengthInMeters="7.00" jamLengthInVehiclesSum="4" jamLengthInMetersSum="28.00" meanHaltingDuration="3.00" maxHaltingDuration="3.00" haltingDurationSum="3.00" meanIntervalHaltingDuration="3.00" maxIntervalHaltingDuration="3.00" intervalHaltingDurationSum="3.00" startedHalts="2.00" meanVehicleNumber="1.12" maxVehicleNumber="2" />
   <interval begin="425.00" end="450.00" id="sens2" nSamples="37" meanSpeed="1.57" meanOccupancy="49.57" maxOccupancy="66.37" meanMaxJamLengthInVehicles="0.72" meanMaxJamLengthInMeters="5.12" maxJamLengthInVehicles="2" maxJamLengthInMeters="15.00" jamLengthInVehiclesSum="18" jamLengthInMetersSum="128.01" meanHaltingDuration="5.50" maxHaltingDuration="6.00" haltingDurationSum="11.00" meanIntervalHaltingDuration="5.50" maxIntervalHaltingDuration="6.00" intervalHaltingDurationSum="11.00" startedHalts="4.00" meanVehicleNumber="1.48" maxVehicleNumber="2" />
   <interval begin="450.00" end="475.00" id="sens2" nSamples="25" meanSpeed="4.96" meanOccupancy="30.40" maxOccupancy="50.00" meanMaxJamLengthInVehicles="0.00" meanMaxJamLengthInMeters="0.00" maxJamLengthInVehicles="0" maxJamLengthInMeters="0.00" jamLengthInVehiclesSum="0" jamLengthInMetersSum="0.00" meanHaltingDuration="0.00" maxHaltingDuration="0.00" haltingDurationSum="0.00" meanIntervalHaltingDuration="0.00" maxIntervalHaltingDuration="0.00" intervalHaltingDurationSum="0.00" startedHalts="0.00" meanVehicleNumber="1.00" maxVehicleNumber="1" />
   <interval begin="475.00" end="500.00" id="sens2" nSamples="34" meanSpeed="2.18" meanOccupancy="45.06" maxOccupancy="66.37" meanMaxJamLengthInVehicles="0.52" meanMaxJamLengthInMeters="3.70" maxJamLengthInVehicles="2" maxJamLengthInMeters="15.00" jamLengthInVehiclesSum="13" jamLengthInMetersSum="92.58" meanHaltingDuration="4.00" maxHaltingDuration="5.00" haltingDurationSum="8.00" meanIntervalHaltingDuration="4.00" maxIntervalHaltingDuration="5.00" intervalHaltingDurationSum="8.00" startedHalts="4.00" meanVehicleNumber="1.36" maxVehicleNumber="2" />
   <interval begin="500.00" end="525.00" id="sens2" nSamples="34" meanSpeed="2.28" meanOccupancy="46.07" maxOccupancy="66.37" meanMaxJamLengthInVehicles="0.44" meanMaxJamLengthInMeters="3.12" maxJamLengthInVehicles="2" maxJamLengthInMeters="15.00" jamLengthInVehiclesSum="11" jamLengthInMetersSum="78.00" meanHaltingDuration="3.67" maxHaltingDuration="7.00" haltingDurationSum="11.00" meanIntervalHaltingDuration="2.67" maxIntervalHaltingDuration="7.00" intervalHaltingDurationSum="8.00" startedHalts="3.00" meanVehicleNumber="1.36" maxVehicleNumber="2" />
   <interval begin="525.00" end="550.00" id="sens2" nSamples="25" meanSpeed="4.63" meanOccupancy="32.51" maxOccupancy="50.00" meanMaxJamLengthInVehicles="0.00" meanMaxJamLengthInMeters="0.00" maxJamLengthInVehicles="0" maxJamLengthInMeters="0.00" jamLengthInVehiclesSum="0" jamLengthInMetersSum="0.00" meanHaltingDuration="0.00" maxHaltingDuration="0.00" haltingDurationSum="0.00" meanIntervalHaltingDuration="0.00" maxIntervalHaltingDuration="0.00" intervalHaltingDurationSum="0.00" startedHalts="0.00" meanVehicleNumber="1.00" maxVehicleNumber="1" />
   <interval begin="550.00" end="575.00" id="sens2" nSamples="39" meanSpeed="1.23" meanOccupancy="53.81" maxOccupancy="66.37" meanMaxJamLengthInVehicles="0.84" meanMaxJamLengthInMeters="5.96" maxJamLengthInVehicles="2" maxJamLengthInMeters="15.00" jamLengthInVehiclesSum="21" jamLengthInMetersSum="149.01" meanHaltingDuration="6.50" maxHaltingDuration="7.00" haltingDurationSum="13.00" meanIntervalHaltingDuration="6.50" maxIntervalHaltingDuration="7.00" intervalHaltingDurationSum="13.00" startedHalts="4.00" meanVehicleNumber="1.56" maxVehicleNumber="2" />
   <interval begin="575.00" end="600.00" id="sens2" nSamples="41" meanSpeed="1.25" meanOccupancy="54.61" maxOccupancy="66.37" meanMaxJamLengthInVehicles="0.84" meanMaxJamLengthInMeters="5.96" maxJamLengthInVehicles="2" maxJamLengthInMeters="15.00" jamLengthInVehiclesSum="21" jamLengthInMetersSum="149.01" meanHaltingDuration="4.67" maxHaltingDuration="7.00" haltingDurationSum="14.00" meanIntervalHaltingDuration="4.67" maxIntervalHaltingDuration="7.00" intervalHaltingDurationSum="14.00" startedHalts="5.00" meanVehicleNumber="1.64" maxVehicleNumber="2" />
   <interval begin="600.00" end="625.00" id="sens2" nSamples="41" meanSpeed="1.02" meanOccupancy="55.26" maxOccupancy="66.37" meanMaxJamLengthInVehicles="0.96" meanMaxJamLengthInMeters="6.80" maxJamLengthInVehicles="2" maxJamLengthInMeters="15.00" jamLengthInVehiclesSum="24" jamLengthInMetersSum="170.01" meanHaltingDuration="4.50" maxHaltingDuration="7.00" haltingDurationSum="18.00" meanIntervalHaltingDuration="4.50" maxIntervalHaltingDuration="7.00" intervalHaltingDurationSum="18.00" startedHalts="5.00" meanVehicleNumber="1.64" maxVehicleNumber="2" />
   <interval begin="625.00" end="650.00" id="sens2" nSamples="41" meanSpeed="1.04" meanOccupancy="54.86" maxOccupancy="66.37" meanMaxJamLengthInVehicles="1.00" meanMaxJamLengthInMeters="7.12" maxJamLengthInVehicles="2" maxJamLengthInMeters="15.00" jamLengthInVehiclesSum="25" jamLengthInMetersSum="178.01" meanHaltingDuration="5.50" maxHaltingDuration="7.00" haltingDurationSum="22.00" meanIntervalHaltingDuration="5.00" maxIntervalHaltingDuration="6.00" intervalHaltingDurationSum="20.00" startedHalts="4.00" meanVehicleNumber="1.64" maxVehicleNumber="2" />
   <interval begin="650.00" end="675.00" id="sens2" nSamples="40" meanSpeed="1.07" meanOccupancy="54.21" maxOccupancy="66.37" meanMaxJamLengthInVehicles="0.96" meanMaxJamLengthInMeters="6.80" maxJamLengthInVehicles="2" maxJamLengthInMeters="15.00" jamLengthInVehiclesSum="24" jamLengthInMetersSum="170.01" meanHaltingDuration="6.33" maxHaltingDuration="7.00" haltingDurationSum="19.00" meanIntervalHaltingDuration="5.00" maxIntervalHaltingDuration="6.00" intervalHaltingDurationSum="15.00" startedHalts="4.00" meanVehicleNumber="1.60" maxVehicleNumber="2" />
   <interval begin="675.00" end="700.00" id="sens2" nSamples="39" meanSpeed="1.14" meanOccupancy="53.90" maxOccupancy="66.37" meanMaxJamLengthInVehicles="0.88" meanMaxJamLengthInMeters="6.24" maxJamLengthInVehicles="2" maxJamLengthInMeters="15.00" jamLengthInVehiclesSum="22" jamLengthInMetersSum="156.01" meanHaltingDuration="6.67" maxHaltingDuration="7.00" haltingDurationSum="20.00" meanIntervalHaltingDuration="4.67" maxIntervalHaltingDuration="7.00" intervalHaltingDurationSum="14.00" startedHalts="4.00" meanVehicleNumber="1.56" maxVehicleNumber="2" />
   <interval begin="700.00" end="725.00" id="sens2" nSamples="28" meanSpeed="4.09" meanOccupancy="34.88" maxOccupancy="56.37" meanMaxJamLengthInVehicles="0.04" meanMaxJamLengthInMeters="0.28" maxJamLengthInVehicles="1" maxJamLengthInMeters="7.00" jamLengthInVehiclesSum="1" jamLengthInMetersSum="7.00" meanHaltingDuration="1.00" maxHaltingDuration="1.00" haltingDurationSum="1.00" meanIntervalHaltingDuration="1.00" maxIntervalHaltingDuration="1.00" intervalHaltingDurationSum="1.00" startedHalts="2.00" meanVehicleNumber="1.12" maxVehicleNumber="2" />
   <interval begin="725.00" end="750.00" id="sens2" nSamples="25" meanSpeed="4.72" meanOccupancy="32.22" maxOccupancy="50.00" meanMaxJamLengthInVehicles="0.00" meanMaxJamLengthInMeters="0.00" maxJamLengthInVehicles="0" maxJamLengthInMeters="0.00" jamLengthInVehiclesSum="0" jamLengthInMetersSum="0.00" meanHaltingDuration="1.00" maxHaltingDuration="1.00" haltingDurationSum="1.00" meanIntervalHaltingDuration="0.00" maxIntervalHaltingDuration="0.00" intervalHaltingDurationSum="0.00" startedHalts="0.00" meanVehicleNumber="1.00" maxVehicleNumber="1" />
   <interval begin="750.00" end="775.00" id="sens2" nSamples="25" meanSpeed="5.04" meanOccupancy="28.80" maxOccupancy="50.00" meanMaxJamLengthInVehicles="0.00" meanMaxJamLengthInMeters="0.00" maxJamLengthInVehicles="0" maxJamLengthInMeters="0.00" jamLengthInVehiclesSum="0" jamLengthInMetersSum="0.00" meanHaltingDuration="0.00" maxHaltingDuration="0.00" haltingDurationSum="0.00" meanIntervalHaltingDuration="0.00" maxIntervalHaltingDuration="0.00" intervalHaltingDurationSum="0.00" startedHalts="0.00" meanVehicleNumber="1.00" maxVehicleNumber="1" />
   <interval begin="775.00" end="800.00" id="sens2" nSamples="25" meanSpeed="4.96" meanOccupancy="30.40" maxOccupancy="50.00" meanMaxJamLengthInVehicles="0.00" meanMaxJamLengthInMeters="0.00" maxJamLengthInVehicles="0" maxJamLengthInMeters="0.00" jamLengthInVehiclesSum="0" jamLengthInMetersSum="0.00" meanHaltingDuration="0.00" maxHaltingDuration="0.00" haltingDurationSum="0.00" meanIntervalHaltingDuration="0.00" maxIntervalHaltingDuration="0.00" intervalHaltingDurationSum="0.00" startedHalts="0.00" meanVehicleNumber="1.00" maxVehicleNumber="1" />
   <interval begin="800.00" end="825.00" id="sens2" nSamples="25" meanSpeed="5.00" meanOccupancy="30.80" maxOccupancy="50.00" meanMaxJamLengthInVehicles="0.00" meanMaxJamLengthInMeters="0.00" maxJamLengthInVehicles="0" maxJamLengthInMeters="0.00" jamLengthInVehiclesSum="0" jamLengthInMetersSum="0.00" meanHaltingDuration="0.00" maxHaltingDuration="0.00" haltingDurationSum="0.00" meanIntervalHaltingDuration="0.00" maxIntervalHaltingDuration="0.00" intervalHaltingDurationSum="0.00" startedHalts="0.00" meanVehicleNumber="1.00" maxVehicleNumber="1" />
   <interval begin="825.00" end="850.00" id="sens2" nSamples="31" meanSpeed="3.11" meanOccupancy="38.71" maxOccupancy="66.37" meanMaxJamLengthInVehicles="0.32" meanMaxJamLengthInMeters="2.28" maxJamLengthInVehicles="2" maxJamLengthInMeters="15.00" jamLengthInVehiclesSum="8" jamLengthInMetersSum="57.00" meanHaltingDuration="5.00" maxHaltingDuration="5.00" haltingDurationSum="5.00" meanIntervalHaltingDuration="5.00" maxIntervalHaltingDuration="5.00" intervalHaltingDurationSum="5.00" startedHalts="2.00" meanVehicleNumber="1.24" maxVehicleNumber="2" />
   <interval begin="850.00" end="875.00" id="sens2" nSamples="35" meanSpeed="1.97" meanOccupancy="47.24" maxOccupancy="66.37" meanMaxJamLengthInVehicles="0.52" meanMaxJamLengthInMeters="3.68" maxJamLengthInVehicles="2" maxJamLengthInMeters="15.00" jamLengthInVehiclesSum="13" jamLengthInMetersSum="92.00" meanHaltingDuration="4.00" maxHaltingDuration="5.00" haltingDurationSum="8.00" meanIntervalHaltingDuration="4.00" maxIntervalHaltingDuration="5.00" intervalHaltingDurationSum="8.00" startedHalts="4.00" meanVehicleNumber="1.40" maxVehicleNumber="2" />
   <interval begin="875.00" end="900.00" id="sens2" nSamples="25" meanSpeed="4.76" meanOccupancy="33.17" maxOccupancy="50.00" meanMaxJamLengthInVehicles="0.00" meanMaxJamLengthInMeters="0.00" maxJamLengthInVehicles="0" maxJamLengthInMeters="0.00" jamLengthInVehiclesSum="0" jamLengthInMetersSum="0.00" meanHaltingDuration="0.00" maxHaltingDuration="0.00" haltingDurationSum="0.00" meanIntervalHaltingDuration="0.00" maxIntervalHaltingDuration="0.00" intervalHaltingDurationSum="0.00" startedHalts="0.00" meanVehicleNumber="1.00" maxVehicleNumber="1" />
   <interval begin="900.00" end="925.00" id="sens2" nSamples="28" meanSpeed="3.82" meanOccupancy="34.80" maxOccupancy="66.37" meanMaxJamLengthInVehicles="0.12" meanMaxJamLengthInMeters="0.84" maxJamLengthInVehicles="1" maxJamLengthInMeters="7.00" jamLengthInVehiclesSum="3" jamLengthInMetersSum="21.00" meanHaltingDuration="2.00" maxHaltingDuration="2.00" haltingDurationSum="2.00" meanIntervalHaltingDuration="2.00" maxIntervalHaltingDuration="2.00" intervalHaltingDurationSum="2.00" startedHalts="2.00" meanVehicleNumber="1.12" maxVehicleNumber="2" />
   <interval begin="925.00" end="950.00" id="sens2" nSamples="30" meanSpeed="3.25" meanOccupancy="38.33" maxOccupancy="66.37" meanMaxJamLengthInVehicles="0.32" meanMaxJamLengthInMeters="2.28" maxJamLengthInVehicles="2" maxJamLengthInMeters="15.00" jamLengthInVehiclesSum="8" jamLengthInMetersSum="57.00" meanHaltingDuration="5.00" maxHaltingDuration="5.00" haltingDurationSum="5.00" meanIntervalHaltingDuration="5.00" maxIntervalHaltingDuration="5.00" intervalHaltingDurationSum="5.00" startedHalts="2.00" meanVehicleNumber="1.20" maxVehicleNumber="2" />
   <interval begin="950.00" end="975.00" id="sens2" nSamples="38" meanSpeed="1.43" meanOccupancy="49.40" maxOccupancy="66.37" meanMaxJamLengthInVehicles="0.80" meanMaxJamLengthInMeters="5.70" maxJamLengthInVehicles="2" maxJamLengthInMeters="15.00" jamLengthInVehiclesSum="20" jamLengthInMetersSum="142.59" meanHaltingDuration="5.33" maxHaltingDuration="6.00" haltingDurationSum="16.00" meanIntervalHaltingDuration="3.67" maxIntervalHaltingDuration="6.00" intervalHaltingDurationSum="11.00" startedHalts="4.00" meanVehicleNumber="1.52" maxVehicleNumber="2" />
   <interval begin="975.00" end="1000.00" id="sens2" nSamples="37" meanSpeed="1.58" meanOccupancy="51.12" maxOccupancy="66.37" meanMaxJamLengthInVehicles="0.68" meanMaxJamLengthInMeters="4.84" maxJamLengthInVehicles="2" maxJamLengthInMeters="15.00" jamLengthInVehiclesSum="17" jamLengthInMetersSum="121.01" meanHaltingDuration="5.33" maxHaltingDuration="7.00" haltingDurationSum="16.00" meanIntervalHaltingDuration="3.67" maxIntervalHaltingDuration="7.00" intervalHaltingDurationSum="11.00" startedHalts="4.00" meanVehicleNumber="1.48" maxVehicleNumber="2" />
   <interval begin="1000.00" end="1001.00" id="sens2" nSamples="1" meanSpeed="3.00" meanOccupancy="26.38" maxOccupancy="26.38" meanMaxJamLengthInVehicles="0.00" meanMaxJamLengthInMeters="0.00" maxJamLengthInVehicles="0" maxJamLengthInMeters="0.00" jamLengthInVehiclesSum="0" jamLengthInMetersSum="0.00" meanHaltingDuration="0.00" maxHaltingDuration="0.00" haltingDurationSum="0.00" meanIntervalHaltingDuration="0.00" maxIntervalHaltingDuration="0.00" intervalHaltingDurationSum="0.00" startedHalts="0.00" meanVehicleNumber="1.00" maxVehicleNumber="1" />
</detector>
