<?xml version="1.0" encoding="UTF-8"?>

<!-- generated on 9-3-2015 21:13:45 by SUMO gui Version 0.22.0
<?xml version="1.0" encoding="UTF-8"?>

<configuration xmlns:xsi="http://www.w3.org/2001/XMLSchema-instance" xsi:noNamespaceSchemaLocation="http://sumo.dlr.de/xsd/sumo-gui.exeConfiguration.xsd">

    <input>
        <net-file value="C:\Users\Jetze\Documents\GitHub\TrafficMAS\TrafficMASTests/tests/Organisations/Norms/orgnormtest.net.xml"/>
        <route-files value="C:\Users\Jetze\Documents\GitHub\TrafficMAS\TrafficMASTests/tests/Organisations/Norms/orgnormtest.rou.xml"/>
        <additional-files value="C:\Users\Jetze\Documents\GitHub\TrafficMAS\TrafficMASTests/tests/Organisations/Norms/orgnormtest.sens.xml"/>
    </input>

    <output>
        <save-state.prefix value="C:\Users\Jetze\Documents\GitHub\TrafficMAS\TrafficMASTests/tests/Organisations/Norms/state"/>
    </output>

    <time>
        <end value="1000"/>
    </time>

    <emissions>
        <phemlight-path value="C:\Users\Jetze\Documents\GitHub\TrafficMAS\TrafficMASTests/tests/Organisations/Norms/./PHEMlight/"/>
    </emissions>

    <traci_server>
        <remote-port value="51977"/>
    </traci_server>

    <random_number>
        <seed value="0"/>
    </random_number>

    <gui_only>
        <gui-settings-file value="C:\Users\Jetze\Documents\GitHub\TrafficMAS\TrafficMASTests/tests/Organisations/Norms/orgnormtest.settings.xml"/>
        <quit-on-end value="true"/>
        <start value="true"/>
    </gui_only>

</configuration>
-->

<detector xmlns:xsi="http://www.w3.org/2001/XMLSchema-instance" xsi:noNamespaceSchemaLocation="http://sumo.dlr.de/xsd/det_e2_file.xsd">
   <interval begin="0.00" end="17.00" id="sens2" nSamples="6" meanSpeed="6.50" meanOccupancy="1.71" maxOccupancy="5.00" meanMaxJamLengthInVehicles="0.00" meanMaxJamLengthInMeters="0.00" maxJamLengthInVehicles="0" maxJamLengthInMeters="0.00" jamLengthInVehiclesSum="0" jamLengthInMetersSum="0.00" meanHaltingDuration="0.00" maxHaltingDuration="0.00" haltingDurationSum="0.00" meanIntervalHaltingDuration="0.00" maxIntervalHaltingDuration="0.00" intervalHaltingDurationSum="0.00" startedHalts="0.00" meanVehicleNumber="0.35" maxVehicleNumber="1" />
</detector>
